# vtk DataFile Version 3.1
coil1.vtk
ASCII
DATASET UNSTRUCTURED_GRID

POINTS 8 float
0.065 0.12 0.022
-0.065 0.12 0.022
-0.065 -0.12 0.022
0.065 -0.12 0.022
0 0.12 0.022
-0.065 0 0.022
0 -0.12 0.022
0.065 0 0.022

CELLS 4 12
2 0 1
2 1 2
2 2 3
2 3 0

CELL_TYPES 4
3
3
3
3

CELL_DATA 4
SCALARS phi0 float
LOOKUP_TABLE default
0
0
0
0
VECTORS I0 float
-1000 0 0
0 -1000 0
1000 0 0
0 1000 0

POINT_DATA 8
SCALARS phi0 float
LOOKUP_TABLE default
0
0
0
0
0
0
0
0
VECTORS I0 float
0 0 0
0 0 0
0 0 0
0 0 0
-1000 0 0
0 -1000 0
1000 0 0
0 1000 0

